<?xml version="1.0" encoding="UTF-8"?>
<cesAna version="1.0.4" xmlns="http://www.xces.org/schema/2003" xmlns:xlink="http://www.w3.org/1999/xlink" xmlns:xsi="http://www.w3.org/2001/XMLSchema-instance" xsi:schemaLocation="http://www.xces.org/schema/2003 http://www.xces.org/schema/2003/xcesAna.xsd">
 <struct from="669" id="n14580897_coll.b" to="678" type="man">
  <feat name="wnsk" value="go_into%2:42:00::"/>
  <feat name="text" value="goes into"/>
 </struct>
 <struct from="695" id="n14580897_coll.a" to="710" type="auto">
  <feat name="wnsk" value="physical_object%1:03:00::"/>
  <feat name="text" value="physical object"/>
 </struct>
 <struct from="841" id="n14582025_coll.a" to="856" type="auto">
  <feat name="wnsk" value="big-bang_theory%1:09:00::"/>
  <feat name="text" value="big bang theory"/>
 </struct>
 <struct from="894" id="n14582025_coll.b" to="911" type="auto">
  <feat name="wnsk" value="chemical_element%1:27:00::"/>
  <feat name="text" value="chemical elements"/>
 </struct>
 <struct from="975" id="n14582220_coll.c" to="982" type="man">
  <feat name="wnsk" value="make_up%2:42:00::"/>
  <feat name="text" value="make up"/>
 </struct>
 <struct from="1072" id="n14582220_coll.b" to="1084" type="man">
  <feat name="wnsk" value="collide_with%2:35:00::"/>
  <feat name="text" value="collide with"/>
 </struct>
 <struct from="1113" id="n14582220_coll.a" to="1132" type="auto">
  <feat name="wnsk" value="gravitational_force%1:19:00::"/>
  <feat name="text" value="gravitational force"/>
 </struct>
 <struct from="1155" id="n14582535_coll.a" to="1175" type="auto">
  <feat name="wnsk" value="elementary_particle%1:17:00::"/>
  <feat name="text" value="elementary particles"/>
 </struct>
 <struct from="1212" id="n14582535_coll.b" to="1221" type="man">
  <feat name="wnsk" value="make_up%2:42:00::"/>
  <feat name="text" value="making up"/>
 </struct>
 <struct from="1415" id="n14582870_coll.a" to="1426" type="auto">
  <feat name="wnsk" value="base_metal%1:27:00::"/>
  <feat name="text" value="base metals"/>
 </struct>
 <struct from="1587" id="n14583228_coll.a" to="1608" type="auto">
  <feat name="wnsk" value="combustible_material%1:27:00::"/>
  <feat name="text" value="combustible materials"/>
 </struct>
 <struct from="1730" id="n14583400_coll.a" to="1747" type="auto">
  <feat name="wnsk" value="pyloric_sphincter%1:08:00::"/>
  <feat name="text" value="pyloric sphincter"/>
 </struct>
 <struct from="1941" id="n14583843_coll.a" to="1956" type="auto">
  <feat name="wnsk" value="coordinate_bond%1:19:00::"/>
  <feat name="text" value="coordinate bond"/>
 </struct>
 <struct from="2032" id="n14584016_coll.a" to="2049" type="auto">
  <feat name="wnsk" value="addition_reaction%1:22:00::"/>
  <feat name="text" value="addition reaction"/>
 </struct>
 <struct from="2096" id="n14584110_coll.a" to="2113" type="auto">
  <feat name="wnsk" value="atomic_number_89%1:27:00::"/>
  <feat name="text" value="atomic numbers 89"/>
 </struct>
 <struct from="2269" id="n14584502_coll.a" to="2285" type="auto">
  <feat name="wnsk" value="body_temperature%1:07:00::"/>
  <feat name="text" value="body temperature"/>
 </struct>
 <struct from="2376" id="n14584765_coll.a" to="2394" type="auto">
  <feat name="wnsk" value="chemical_compound%1:27:00::"/>
  <feat name="text" value="chemical compounds"/>
 </struct>
 <struct from="2782" id="n14585808_coll.a" to="2808" type="auto">
  <feat name="wnsk" value="weapon_of_mass_destruction%1:06:00::"/>
  <feat name="text" value="weapon of mass destruction"/>
 </struct>
 <struct from="3159" id="n14586769_coll.a" to="3176" type="auto">
  <feat name="wnsk" value="metallic_element%1:27:00::"/>
  <feat name="text" value="metallic elements"/>
 </struct>
 <struct from="3390" id="n14587688_coll.a" to="3411" type="auto">
  <feat name="wnsk" value="clostridium_botulinum%1:05:00::"/>
  <feat name="text" value="Clostridium botulinum"/>
 </struct>
 <struct from="3452" id="n14587886_coll.a" to="3462" type="auto">
  <feat name="wnsk" value="trade_name%1:10:00::"/>
  <feat name="text" value="trade name"/>
 </struct>
 <struct from="3562" id="n14587886_coll.b" to="3584" type="auto">
  <feat name="wnsk" value="neurological_disorder%1:26:00::"/>
  <feat name="text" value="neurological disorders"/>
 </struct>
 <struct from="3611" id="n14587886_coll.c" to="3630" type="auto">
  <feat name="wnsk" value="muscle_contraction%1:04:00::"/>
  <feat name="text" value="muscle contractions"/>
 </struct>
 <struct from="3648" id="n14587886_coll.d" to="3665" type="man">
  <feat name="wnsk" value="cosmetic_surgeon%1:18:00::"/>
  <feat name="text" value="cosmetic surgeons"/>
 </struct>
 <struct from="3676" id="n14587886_coll.e" to="3687" type="auto">
  <feat name="wnsk" value="frown_line%1:25:00::"/>
  <feat name="text" value="frown lines"/>
 </struct>
 <struct from="4027" id="n14589114_coll.a" to="4040" type="man">
  <feat name="wnsk" value="melting_point%1:07:00::"/>
  <feat name="text" value="melting point"/>
 </struct>
 <struct from="4209" id="n14589994_coll.a" to="4225" type="auto">
  <feat name="wnsk" value="aqueous_solution%1:27:00::"/>
  <feat name="text" value="aqueous solution"/>
 </struct>
 <struct from="4307" id="n14589994_coll.b" to="4321" type="auto">
  <feat name="wnsk" value="animal_tissue%1:08:00::"/>
  <feat name="text" value="animal tissues"/>
 </struct>
 <struct from="4402" id="n14589994_coll.c" to="4410" type="man">
  <feat name="wnsk" value="in_vitro%3:00:00::"/>
  <feat name="text" value="in vitro"/>
 </struct>
 <struct from="4428" id="n14590293_coll.a" to="4445" type="auto">
  <feat name="wnsk" value="isotonic_solution%1:27:00::"/>
  <feat name="text" value="isotonic solution"/>
 </struct>
 <struct from="4449" id="n14590293_coll.c" to="4464" type="auto">
  <feat name="wnsk" value="sodium_chloride%1:27:00::"/>
  <feat name="text" value="sodium chloride"/>
 </struct>
 <struct from="4469" id="n14590293_coll.b" to="4484" type="auto">
  <feat name="wnsk" value="distilled_water%1:27:00::"/>
  <feat name="text" value="distilled water"/>
 </struct>
 <struct from="4509" id="n14590441_coll.a" to="4525" type="auto">
  <feat name="wnsk" value="molecular_weight%1:07:00::"/>
  <feat name="text" value="molecular weight"/>
 </struct>
 <struct from="4572" id="n14590685_coll.b" to="4585" type="auto">
  <feat name="wnsk" value="colloidal_gel%1:27:00::"/>
  <feat name="text" value="colloidal gel"/>
 </struct>
 <struct from="4608" id="n14590685_coll.a" to="4625" type="auto">
  <feat name="wnsk" value="dispersion_medium%1:27:00::"/>
  <feat name="text" value="dispersion medium"/>
 </struct>
 <struct from="4893" id="n14591333_coll.a" to="4909" type="auto">
  <feat name="wnsk" value="plaster_of_paris%1:27:00::"/>
  <feat name="text" value="plaster of Paris"/>
 </struct>
 <struct from="5859" id="n14593545_coll.a" to="5879" type="auto">
  <feat name="wnsk" value="thermoplastic_resin%1:27:00::"/>
  <feat name="text" value="thermoplastic resins"/>
 </struct>
 <struct from="6065" id="n14594032_coll.a" to="6078" type="auto">
  <feat name="wnsk" value="acrylic_resin%1:27:00::"/>
  <feat name="text" value="acrylic resin"/>
 </struct>
 <struct from="6228" id="n14594456_coll.a" to="6239" type="auto">
  <feat name="wnsk" value="acetic_acid%1:27:00::"/>
  <feat name="text" value="acetic acid"/>
 </struct>
 <struct from="6335" id="n14594708_coll.a" to="6345" type="auto">
  <feat name="wnsk" value="acyl_group%1:27:00::"/>
  <feat name="text" value="acyl group"/>
 </struct>
 <struct from="6468" id="n14595076_coll.a" to="6482" type="auto">
  <feat name="wnsk" value="chemical_group%1:27:00::"/>
  <feat name="text" value="chemical group"/>
 </struct>
 <struct from="6492" id="n14595176_coll.a" to="6506" type="auto">
  <feat name="wnsk" value="chemical_group%1:27:00::"/>
  <feat name="text" value="chemical group"/>
 </struct>
 <struct from="6515" id="n14595279_coll.a" to="6528" type="auto">
  <feat name="wnsk" value="vinyl_polymer%1:27:00::"/>
  <feat name="text" value="vinyl polymer"/>
 </struct>
 <struct from="7023" id="n14596216_coll.a" to="7042" type="auto">
  <feat name="wnsk" value="telephone_receiver%1:06:00::"/>
  <feat name="text" value="telephone receivers"/>
 </struct>
 <struct from="7073" id="n14596398_coll.a" to="7089" type="auto">
  <feat name="wnsk" value="cooking_utensil%1:06:00::"/>
  <feat name="text" value="cooking utensils"/>
 </struct>
 <struct from="7169" id="n14596599_coll.a" to="7181" type="auto">
  <feat name="wnsk" value="vinyl_resin%1:27:00::"/>
  <feat name="text" value="vinyl resins"/>
 </struct>
 <struct from="7242" id="n14596839_coll.b" to="7254" type="auto">
  <feat name="wnsk" value="raw_material%1:27:00::"/>
  <feat name="text" value="raw material"/>
 </struct>
 <struct from="7281" id="n14596839_coll.a" to="7299" type="auto">
  <feat name="wnsk" value="industrial_process%1:22:00::"/>
  <feat name="text" value="industrial process"/>
 </struct>
 <struct from="7349" id="n14596956_coll.a" to="7357" type="man">
  <feat name="wnsk" value="take_up%2:35:04::"/>
  <feat name="text" value="taken up"/>
 </struct>
 <struct from="7498" id="n14597158_coll.a" to="7508" type="man">
  <feat name="wnsk" value="take_up%2:35:04::"/>
  <feat name="text" value="take up"/>
 </struct>
 <struct from="7751" id="n14597758_coll.a" to="7765" type="auto">
  <feat name="wnsk" value="marine_animal%1:05:00::"/>
  <feat name="text" value="marine animals"/>
 </struct>
 <struct from="7875" id="n14598079_coll.a" to="7890" type="auto">
  <feat name="wnsk" value="nuclear_reactor%1:06:00::"/>
  <feat name="text" value="nuclear reactor"/>
 </struct>
 <struct from="8155" id="n14598834_coll.a" to="8169" type="auto">
  <feat name="wnsk" value="chemical_agent%1:27:00::"/>
  <feat name="text" value="chemical agent"/>
 </struct>
 <struct from="8420" id="n14599494_coll.a" to="8431" type="auto">
  <feat name="wnsk" value="acetic_acid%1:27:00::"/>
  <feat name="text" value="acetic acid"/>
 </struct>
</cesAna>
